<?xml version="1.0"?>
<!-- Time step: 3 | Time: 1.500000000000e+001 -->
<VTKFile type="UnstructuredGrid" version="0.1" byte_order="LittleEndian">
  <UnstructuredGrid>
    <Piece NumberOfPoints="11" NumberOfCells="10">
      <Points>
        <DataArray type="Float64" NumberOfComponents="3" format="ascii">
          0.000000000000e+000 0.000000000000e+000 0.000000000000e+000
          0.000000000000e+000 0.000000000000e+000 2.000000000000e-001
          0.000000000000e+000 0.000000000000e+000 4.000000000000e-001
          0.000000000000e+000 0.000000000000e+000 6.000000000000e-001
          0.000000000000e+000 0.000000000000e+000 8.000000000000e-001
          0.000000000000e+000 0.000000000000e+000 1.000000000000e+000
          0.000000000000e+000 0.000000000000e+000 1.200000000000e+000
          0.000000000000e+000 0.000000000000e+000 1.400000000000e+000
          0.000000000000e+000 0.000000000000e+000 1.600000000000e+000
          0.000000000000e+000 0.000000000000e+000 1.800000000000e+000
          0.000000000000e+000 0.000000000000e+000 2.000000000000e+000
        </DataArray>
      </Points>
      <Cells>
        <DataArray type="Int32" Name="connectivity" format="ascii">
          0 1 
          1 2 
          2 3 
          3 4 
          4 5 
          5 6 
          6 7 
          7 8 
          8 9 
          9 10 
        </DataArray>
        <DataArray type="Int32" Name="offsets" format="ascii">
          2 4 6 8 10 12 14 16 18 20 
        </DataArray>
        <DataArray type="UInt8" Name="types" format="ascii">
          3 3 3 3 3 3 3 3 3 3 
        </DataArray>
      </Cells>
      <PointData Scalars="PRESSURE1">
        <DataArray type="Float64" Name="PRESSURE1" format="ascii">
          -2.150000000000e+004 -2.149960006927e+004 -2.150161260656e+004 -2.149391278913e+004 -2.152281962583e+004 -2.141484996361e+004 -2.181801937711e+004 -2.033567330960e+004 -2.600882553816e+004 -7.971846560860e+003 0.000000000000e+000 
        </DataArray>
        <DataArray type="Float64" Name="SATURATION1" format="ascii">
          4.545291614435e-001 4.545217887078e-001 4.545416423487e-001 4.544669482972e-001 4.547454103173e-001 4.537054653356e-001 4.574947049469e-001 4.426431762620e-001 4.942953762736e-001 7.529574613456e-001 9.399062506801e-001 
        </DataArray>
      </PointData>
      <CellData>
      </CellData>
    </Piece>
  </UnstructuredGrid>
</VTKFile>
