<?xml version="1.0"?>
<!-- Time step: 2 | Time: 1.000000000000e+001 -->
<VTKFile type="UnstructuredGrid" version="0.1" byte_order="LittleEndian">
  <UnstructuredGrid>
    <Piece NumberOfPoints="11" NumberOfCells="10">
      <Points>
        <DataArray type="Float64" NumberOfComponents="3" format="ascii">
          0.000000000000e+000 0.000000000000e+000 0.000000000000e+000
          0.000000000000e+000 0.000000000000e+000 2.000000000000e-001
          0.000000000000e+000 0.000000000000e+000 4.000000000000e-001
          0.000000000000e+000 0.000000000000e+000 6.000000000000e-001
          0.000000000000e+000 0.000000000000e+000 8.000000000000e-001
          0.000000000000e+000 0.000000000000e+000 1.000000000000e+000
          0.000000000000e+000 0.000000000000e+000 1.200000000000e+000
          0.000000000000e+000 0.000000000000e+000 1.400000000000e+000
          0.000000000000e+000 0.000000000000e+000 1.600000000000e+000
          0.000000000000e+000 0.000000000000e+000 1.800000000000e+000
          0.000000000000e+000 0.000000000000e+000 2.000000000000e+000
        </DataArray>
      </Points>
      <Cells>
        <DataArray type="Int32" Name="connectivity" format="ascii">
          0 1 
          1 2 
          2 3 
          3 4 
          4 5 
          5 6 
          6 7 
          7 8 
          8 9 
          9 10 
        </DataArray>
        <DataArray type="Int32" Name="offsets" format="ascii">
          2 4 6 8 10 12 14 16 18 20 
        </DataArray>
        <DataArray type="UInt8" Name="types" format="ascii">
          3 3 3 3 3 3 3 3 3 3 
        </DataArray>
      </Cells>
      <PointData Scalars="PRESSURE1">
        <DataArray type="Float64" Name="PRESSURE1" format="ascii">
          -2.150000000000e+004 -2.149960085845e+004 -2.150160926043e+004 -2.149392613748e+004 -2.152276672277e+004 -2.141505860824e+004 -2.181719458186e+004 -2.033885854623e+004 -2.599562928448e+004 -8.007931260219e+003 0.000000000000e+000 
        </DataArray>
        <DataArray type="Float64" Name="SATURATION1" format="ascii">
          4.545291550233e-001 4.545217975033e-001 4.545416068644e-001 4.544670888459e-001 4.547448572754e-001 4.537076548184e-001 4.574863568354e-001 4.426790960103e-001 4.941239641760e-001 7.524954328265e-001 9.394194146831e-001 
        </DataArray>
      </PointData>
      <CellData>
      </CellData>
    </Piece>
  </UnstructuredGrid>
</VTKFile>
