<?xml version="1.0"?>
<!-- Time step: 1 | Time: 5.000000000000e+000 -->
<VTKFile type="UnstructuredGrid" version="0.1" byte_order="LittleEndian">
  <UnstructuredGrid>
    <Piece NumberOfPoints="11" NumberOfCells="10">
      <Points>
        <DataArray type="Float64" NumberOfComponents="3" format="ascii">
          0.000000000000e+000 0.000000000000e+000 0.000000000000e+000
          0.000000000000e+000 0.000000000000e+000 2.000000000000e-001
          0.000000000000e+000 0.000000000000e+000 4.000000000000e-001
          0.000000000000e+000 0.000000000000e+000 6.000000000000e-001
          0.000000000000e+000 0.000000000000e+000 8.000000000000e-001
          0.000000000000e+000 0.000000000000e+000 1.000000000000e+000
          0.000000000000e+000 0.000000000000e+000 1.200000000000e+000
          0.000000000000e+000 0.000000000000e+000 1.400000000000e+000
          0.000000000000e+000 0.000000000000e+000 1.600000000000e+000
          0.000000000000e+000 0.000000000000e+000 1.800000000000e+000
          0.000000000000e+000 0.000000000000e+000 2.000000000000e+000
        </DataArray>
      </Points>
      <Cells>
        <DataArray type="Int32" Name="connectivity" format="ascii">
          0 1 
          1 2 
          2 3 
          3 4 
          4 5 
          5 6 
          6 7 
          7 8 
          8 9 
          9 10 
        </DataArray>
        <DataArray type="Int32" Name="offsets" format="ascii">
          2 4 6 8 10 12 14 16 18 20 
        </DataArray>
        <DataArray type="UInt8" Name="types" format="ascii">
          3 3 3 3 3 3 3 3 3 3 
        </DataArray>
      </Cells>
      <PointData Scalars="PRESSURE1">
        <DataArray type="Float64" Name="PRESSURE1" format="ascii">
          -2.150000000000e+004 -2.149960164753e+004 -2.150160591515e+004 -2.149393948095e+004 -2.152271384486e+004 -2.141526713230e+004 -2.181637035473e+004 -2.034204140836e+004 -2.598244597064e+004 -8.043996103758e+003 0.000000000000e+000 
        </DataArray>
        <DataArray type="Float64" Name="SATURATION1" format="ascii">
          4.545291486041e-001 4.545218062960e-001 4.545415713950e-001 4.544672293203e-001 4.547443045803e-001 4.537098426747e-001 4.574780151612e-001 4.427149764573e-001 4.939526084043e-001 7.520336423799e-001 9.389328465704e-001 
        </DataArray>
      </PointData>
      <CellData>
      </CellData>
    </Piece>
  </UnstructuredGrid>
</VTKFile>
