<?xml version="1.0"?>
<!-- Time step: 0 | Time: 0.000000000000e+000 -->
<VTKFile type="UnstructuredGrid" version="0.1" byte_order="LittleEndian">
  <UnstructuredGrid>
    <Piece NumberOfPoints="11" NumberOfCells="10">
      <Points>
        <DataArray type="Float64" NumberOfComponents="3" format="ascii">
          0.000000000000e+000 0.000000000000e+000 0.000000000000e+000
          0.000000000000e+000 0.000000000000e+000 2.000000000000e-001
          0.000000000000e+000 0.000000000000e+000 4.000000000000e-001
          0.000000000000e+000 0.000000000000e+000 6.000000000000e-001
          0.000000000000e+000 0.000000000000e+000 8.000000000000e-001
          0.000000000000e+000 0.000000000000e+000 1.000000000000e+000
          0.000000000000e+000 0.000000000000e+000 1.200000000000e+000
          0.000000000000e+000 0.000000000000e+000 1.400000000000e+000
          0.000000000000e+000 0.000000000000e+000 1.600000000000e+000
          0.000000000000e+000 0.000000000000e+000 1.800000000000e+000
          0.000000000000e+000 0.000000000000e+000 2.000000000000e+000
        </DataArray>
      </Points>
      <Cells>
        <DataArray type="Int32" Name="connectivity" format="ascii">
          0 1 
          1 2 
          2 3 
          3 4 
          4 5 
          5 6 
          6 7 
          7 8 
          8 9 
          9 10 
        </DataArray>
        <DataArray type="Int32" Name="offsets" format="ascii">
          2 4 6 8 10 12 14 16 18 20 
        </DataArray>
        <DataArray type="UInt8" Name="types" format="ascii">
          3 3 3 3 3 3 3 3 3 3 
        </DataArray>
      </Cells>
      <PointData Scalars="PRESSURE1">
        <DataArray type="Float64" Name="PRESSURE1" format="ascii">
          -2.150000000000e+004 -2.149960243644e+004 -2.150160257092e+004 -2.149395281877e+004 -2.152266099503e+004 -2.141547552490e+004 -2.181554673656e+004 -2.034522174636e+004 -2.596927618616e+004 -8.080039544926e+003 0.000000000000e+000 
        </DataArray>
        <DataArray type="Float64" Name="SATURATION1" format="ascii">
          4.545291421863e-001 4.545218150854e-001 4.545415359425e-001 4.544673697128e-001 4.547437522602e-001 4.537120287991e-001 4.574696803060e-001 4.427508160348e-001 4.937813161663e-001 7.515721097396e-001 9.384465672075e-001 
        </DataArray>
      </PointData>
      <CellData>
      </CellData>
    </Piece>
  </UnstructuredGrid>
</VTKFile>
